Name,SMILES,Exp HoF (kcal/mol),area,dipole,heat_of_formation,ionization_potential,volume
methane,C,-17.8,54.8134,9.04454e-06,-14.4041,13.7276,37.0435
ethane,CC,-20.0,75.9047,1.80646e-05,-18.198,11.9681,57.4786
propane,CCC,-25.02,95.9103,0.0571647,-23.0876,11.3935,79.2128
n-butane,CCCC,-30.03,116.219,0.000415404,-28.21,11.1765,101.264
2-methylpropane,CC(C)C,-32.07,114.357,0.0943371,-28.948,11.2843,102.138
n-pentane,CCCCC,-35.08,136.237,0.0632729,-33.2861,11.0864,123.556
2-methylbutane,CC(C)CC,-36.73,131.958,0.0589169,-33.4625,11.1318,122.979
"2,2-dimethylpropane",CC(C)(C)C,-40.14,130.251,0.000247618,-35.5278,11.3804,125.377